<VTKFile type="UnstructuredGrid" version="0.1" byte_order="LittleEndian">
<UnstructuredGrid>
<Piece NumberOfPoints="80" NumberOfCells="20">
<Points>
<DataArray type="Float64" NumberOfComponents="3" format="ascii">
0 0 0
0.5 0 0
0.154508 0.475529 0
0.654509 0.475529 0
0 0 0
0.154508 0.475529 0
-0.404508 0.293893 0
-0.25 0.769421 0
0 0 0
-0.404508 0.293893 0
-0.404508 -0.293893 0
-0.809016 0 0
0 0 0
-0.404508 -0.293893 0
0.154508 -0.475529 0
-0.25 -0.76942 0
0 0 0
0.154508 -0.475529 0
0.5 0 0
0.654509 -0.475529 0
0.5 0 0
1 0 0
0.654509 0.475529 0
1.15451 0.475529 0
0.654509 0.475529 0
1.15451 0.475529 0
0.809019 0.951057 0
1.30902 0.951057 0
0.154508 0.475529 0
0.654509 0.475529 0
0.309017 0.951057 0
0.809019 0.951057 0
0.154508 0.475529 0
0.309017 0.951057 0
-0.25 0.769421 0
-0.0954915 1.24495 0
-0.25 0.769421 0
-0.0954915 1.24495 0
-0.654508 1.06331 0
-0.5 1.53884 0
-0.404508 0.293893 0
-0.25 0.769421 0
-0.809017 0.587785 0
-0.654508 1.06331 0
-0.404508 0.293893 0
-0.809017 0.587785 0
-0.809016 0 0
-1.21352 0.293893 0
-0.809016 0 0
-1.21352 0.293893 0
-1.21352 -0.293892 0
-1.61803 0 0
-0.404508 -0.293893 0
-0.809016 0 0
-0.809017 -0.587785 0
-1.21352 -0.293892 0
-0.404508 -0.293893 0
-0.809017 -0.587785 0
-0.25 -0.76942 0
-0.654508 -1.06331 0
-0.25 -0.76942 0
-0.654508 -1.06331 0
-0.0954915 -1.24495 0
-0.5 -1.53884 0
0.154508 -0.475529 0
-0.25 -0.76942 0
0.309017 -0.951057 0
-0.0954915 -1.24495 0
0.154508 -0.475529 0
0.309017 -0.951057 0
0.654509 -0.475529 0
0.809019 -0.951057 0
0.654509 -0.475529 0
0.809019 -0.951057 0
1.15451 -0.475529 0
1.30902 -0.951057 0
0.5 0 0
0.654509 -0.475529 0
1 0 0
1.15451 -0.475529 0
</DataArray>
</Points>
<Cells>
<DataArray type="Int32" Name="connectivity" format="ascii">
0 1 3 2 
4 5 7 6 
8 9 11 10 
12 13 15 14 
16 17 19 18 
20 21 23 22 
24 25 27 26 
28 29 31 30 
32 33 35 34 
36 37 39 38 
40 41 43 42 
44 45 47 46 
48 49 51 50 
52 53 55 54 
56 57 59 58 
60 61 63 62 
64 65 67 66 
68 69 71 70 
72 73 75 74 
76 77 79 78 
</DataArray>
<DataArray type="Int32" Name="offsets" format="ascii">
4
8
12
16
20
24
28
32
36
40
44
48
52
56
60
64
68
72
76
80
</DataArray>
<DataArray type="UInt8" Name="types" format="ascii">
9
9
9
9
9
9
9
9
9
9
9
9
9
9
9
9
9
9
9
9
</DataArray>
</Cells>
<CellData Scalars="attribute">
<DataArray type="Int32" Name="attribute" format="ascii">
1
1
1
1
1
1
1
1
1
1
1
1
1
1
1
1
1
1
1
1
</DataArray>
</CellData>
<PointData >
<DataArray type="Float64" Name="concentration" NumberOfComponents="1"  format="ascii" >
0.718026147
0.775462487
0.77546266
0.850681875
0.718026147
0.77546266
0.775462904
0.85068189
0.718026147
0.775462904
0.775462908
0.850682094
0.718026147
0.775462908
0.775462646
0.850681659
0.718026147
0.775462646
0.775462487
0.850681873
0.775462487
1
0.850681875
1
0.850681875
1
1
1
0.77546266
0.850681875
1
1
0.77546266
1
0.85068189
1
0.85068189
1
1
1
0.775462904
0.85068189
1
1
0.775462904
1
0.850682094
1
0.850682094
1
1
1
0.775462908
0.850682094
1
1
0.775462908
1
0.850681659
1
0.850681659
1
1
1
0.775462646
0.850681659
1
1
0.775462646
1
0.850681873
1
0.850681873
1
1
1
0.775462487
0.850681873
1
1
</DataArray>
<DataArray type="Float64" Name="concentration_gradient" NumberOfComponents="2" ComponentName0="0" ComponentName1="1" format="ascii" >
0.114872679 0.0834602416 
0.114872679 0.120855984 
0.150438129 0.0719043818 
0.150438129 0.10930005 
-0.043878173 0.135041274 
-0.0794434715 0.146597085 
-0.0218975929 0.165294871 
-0.0574629377 0.176850721 
-0.141991652 -6.85143654e-09 
-0.16397197 -0.0302532432 
-0.16397197 0.0302532295 
-0.185952288 -6.85143656e-09 
-0.0438781979 -0.135041253 
-0.0218976879 -0.165294754 
-0.0794433455 -0.146597015 
-0.057462928 -0.176850595 
0.114872679 -0.083460213 
0.150438153 -0.0719043453 
0.114872679 -0.120855981 
0.150438153 -0.109300039 
0.449075027 0.0122668753 
0.449075027 -0.145914513 
0.298635653 0.0611476737 
0.298635653 -0.0970333981 
0.298635653 0.216971304 
0.298635653 -0.0970336021 
0 0.314004906 
0 0 
0.150438129 0.423304821 
0.150438129 0.265124093 
0 0.472185318 
0 0.314004906 
0.127104601 0.430886373 
0.277543649 0.382005578 
0.0341282504 0.30291529 
0.184567289 0.254034759 
-0.114071867 0.351068353 
0.184565765 0.254035254 
-0.298637613 0.0970325747 
0 0 
-0.356098528 0.273883047 
-0.20566233 0.225003494 
-0.449073056 0.145914156 
-0.298636644 0.0970339082 
-0.370519458 0.254034274 
-0.277544828 0.382003305 
-0.277544828 0.126065994 
-0.184569048 0.25403459 
-0.369138268 0 
-0.184567765 0.254036356 
-0.184567765 -0.25403722 
0 0 
-0.370519448 -0.254034274 
-0.277544978 -0.126066215 
-0.277545295 -0.382002648 
-0.184569676 -0.25403459 
-0.356098473 -0.27388311 
-0.449073048 -0.145914153 
-0.205662357 -0.22500348 
-0.298636913 -0.0970339957 
-0.114071775 -0.351068072 
-0.298637882 -0.0970326622 
0.184565737 -0.254035216 
0 0 
0.127104192 -0.430886535 
0.0341279924 -0.302915224 
0.277543666 -0.382005601 
0.184567262 -0.254034721 
0.150438153 -0.423304842 
0 -0.472185347 
0.150438153 -0.265124089 
0 -0.31400491 
0.298635656 -0.216971307 
0 -0.31400491 
0.298635656 0.0970336031 
0 0 
0.449075027 -0.0122668721 
0.298635656 -0.0611476695 
0.449075027 0.145914513 
0.298635656 0.0970333991 
</DataArray>
</PointData>
</Piece>
</UnstructuredGrid>
</VTKFile>
